Hg    ONCVPSP-4.0.1  r_core=   3.20805   3.00375   2.51029   3.00375
     80.0000     12.0000      250912    zatom,zion,pspd
     8       2   3     4   700     0    pspcod,pspxc,lmax,lloc,mmax,r2well
  6.99000000  0.00000000  0.00000000    rchrg fchrg qchrg
     2     3     2     2    nproj
     3     1           extension_switch
     3     3     3    nprojso
   0                         2.9945456561703E+00  2.8052834045045E-01
     1  0.0000000000000E+00 -7.5625616879904E-13  1.0736272981759E-12
     2  1.0000000000000E-02  2.1421675826734E-02 -9.4846930909034E-03
     3  2.0000000000000E-02  4.2833543762601E-02 -1.8958628433292E-02
     4  3.0000000000000E-02  6.4225806009867E-02 -2.8411065402525E-02
     5  4.0000000000000E-02  8.5588684919618E-02 -3.7831297503688E-02
     6  5.0000000000000E-02  1.0691243298056E-01 -4.7208669197700E-02
     7  6.0000000000000E-02  1.2818734271388E-01 -5.6532592499471E-02
     8  7.0000000000000E-02  1.4940375644772E-01 -6.5792563301049E-02
     9  8.0000000000000E-02  1.7055207594583E-01 -7.4978177373774E-02
    10  9.0000000000000E-02  1.9162277186543E-01 -8.4079146004723E-02
    11  1.0000000000000E-01  2.1260639302055E-01 -9.3085311224130E-02
    12  1.1000000000000E-01  2.3349357542796E-01 -1.0198666058203E-01
    13  1.2000000000000E-01  2.5427505111363E-01 -1.1077334143409E-01
    14  1.3000000000000E-01  2.7494165665908E-01 -1.1943567469840E-01
    15  1.4000000000000E-01  2.9548434146780E-01 -1.2796416804699E-01
    16  1.5000000000000E-01  3.1589417573322E-01 -1.3634952849797E-01
    17  1.6000000000000E-01  3.3616235809089E-01 -1.4458267437625E-01
    18  1.7000000000000E-01  3.5628022293881E-01 -1.5265474661323E-01
    19  1.8000000000000E-01  3.7623924741102E-01 -1.6055711935832E-01
    20  1.9000000000000E-01  3.9603105799107E-01 -1.6828140987725E-01
    21  2.0000000000000E-01  4.1564743675297E-01 -1.7581948771522E-01
    22  2.1000000000000E-01  4.3508032721915E-01 -1.8316348310511E-01
    23  2.2000000000000E-01  4.5432183982560E-01 -1.9030579460391E-01
    24  2.3000000000000E-01  4.7336425698640E-01 -1.9723909594311E-01
    25  2.4000000000000E-01  4.9220003775088E-01 -2.0395634208162E-01
    26  2.5000000000000E-01  5.1082182204812E-01 -2.1045077445259E-01
    27  2.6000000000000E-01  5.2922243451492E-01 -2.1671592539822E-01
    28  2.7000000000000E-01  5.4739488790485E-01 -2.2274562178948E-01
    29  2.8000000000000E-01  5.6533238607706E-01 -2.2853398783060E-01
    30  2.9000000000000E-01  5.8302832656546E-01 -2.3407544705077E-01
    31  3.0000000000000E-01  6.0047630272955E-01 -2.3936472348844E-01
    32  3.1000000000000E-01  6.1767010549010E-01 -2.4439684207626E-01
    33  3.2000000000000E-01  6.3460372465390E-01 -2.4916712823740E-01
    34  3.3000000000000E-01  6.5127134983307E-01 -2.5367120670676E-01
    35  3.4000000000000E-01  6.6766737096584E-01 -2.5790499959302E-01
    36  3.5000000000000E-01  6.8378637844677E-01 -2.6186472370012E-01
    37  3.6000000000000E-01  6.9962316287561E-01 -2.6554688712924E-01
    38  3.7000000000000E-01  7.1517271443522E-01 -2.6894828518451E-01
    39  3.8000000000000E-01  7.3043022190986E-01 -2.7206599560842E-01
    40  3.9000000000000E-01  7.4539107135646E-01 -2.7489737317454E-01
    41  4.0000000000000E-01  7.6005084444227E-01 -2.7744004366773E-01
    42  4.1000000000000E-01  7.7440531646332E-01 -2.7969189728370E-01
    43  4.2000000000000E-01  7.8845045405902E-01 -2.8165108148173E-01
    44  4.3000000000000E-01  8.0218241263897E-01 -2.8331599332628E-01
    45  4.4000000000000E-01  8.1559753353903E-01 -2.8468527135451E-01
    46  4.5000000000000E-01  8.2869234092403E-01 -2.8575778700852E-01
    47  4.6000000000000E-01  8.4146353845562E-01 -2.8653263567230E-01
    48  4.7000000000000E-01  8.5390800574394E-01 -2.8700912735468E-01
    49  4.8000000000000E-01  8.6602279460248E-01 -2.8718677706064E-01
    50  4.9000000000000E-01  8.7780512512605E-01 -2.8706529489419E-01
    51  5.0000000000000E-01  8.8925238161185E-01 -2.8664457593691E-01
    52  5.1000000000000E-01  9.0036210834434E-01 -2.8592468994681E-01
    53  5.2000000000000E-01  9.1113200526444E-01 -2.8490587092268E-01
    54  5.3000000000000E-01  9.2155992354416E-01 -2.8358850657939E-01
    55  5.4000000000000E-01  9.3164386108754E-01 -2.8197312777975E-01
    56  5.5000000000000E-01  9.4138195797900E-01 -2.8006039796880E-01
    57  5.6000000000000E-01  9.5077249190013E-01 -2.7785110265564E-01
    58  5.7000000000000E-01  9.5981387353579E-01 -2.7534613898861E-01
    59  5.8000000000000E-01  9.6850464199029E-01 -2.7254650546805E-01
    60  5.9000000000000E-01  9.7684346023414E-01 -2.6945329184124E-01
    61  6.0000000000000E-01  9.8482911060161E-01 -2.6606766922288E-01
    62  6.1000000000000E-01  9.9246049035884E-01 -2.6239088048352E-01
    63  6.2000000000000E-01  9.9973660736203E-01 -2.5842423094777E-01
    64  6.3000000000000E-01  1.0066565758245E+00 -2.5416907944248E-01
    65  6.4000000000000E-01  1.0132196122111E+00 -2.4962682973399E-01
    66  6.5000000000000E-01  1.0194250312774E+00 -2.4479892239215E-01
    67  6.6000000000000E-01  1.0252722422714E+00 -2.3968682711718E-01
    68  6.7000000000000E-01  1.0307607453133E+00 -2.3429203556366E-01
    69  6.8000000000000E-01  1.0358901279695E+00 -2.2861605469438E-01
    70  6.9000000000000E-01  1.0406600620354E+00 -2.2266040069465E-01
    71  7.0000000000000E-01  1.0450703005407E+00 -2.1642659347568E-01
    72  7.1000000000000E-01  1.0491206749907E+00 -2.0991615179363E-01
    73  7.2000000000000E-01  1.0528110928550E+00 -2.0313058900867E-01
    74  7.3000000000000E-01  1.0561415353152E+00 -1.9607140950594E-01
    75  7.4000000000000E-01  1.0591120552810E+00 -1.8874010579815E-01
    76  7.5000000000000E-01  1.0617227756845E+00 -1.8113815632697E-01
    77  7.6000000000000E-01  1.0639738880597E+00 -1.7326702397786E-01
    78  7.7000000000000E-01  1.0658656514141E+00 -1.6512815532043E-01
    79  7.8000000000000E-01  1.0673983913993E+00 -1.5672298058374E-01
    80  7.9000000000000E-01  1.0685724997826E+00 -1.4805291437336E-01
    81  8.0000000000000E-01  1.0693884342253E+00 -1.3911935713430E-01
    82  8.1000000000000E-01  1.0698467183688E+00 -1.2992369736099E-01
    83  8.2000000000000E-01  1.0699479422285E+00 -1.2046731455311E-01
    84  8.3000000000000E-01  1.0696927628977E+00 -1.1075158291287E-01
    85  8.4000000000000E-01  1.0690819055572E+00 -1.0077787577695E-01
    86  8.5000000000000E-01  1.0681161647898E+00 -9.0547570773345E-02
    87  8.6000000000000E-01  1.0667964061953E+00 -8.0062055690528E-02
    88  8.7000000000000E-01  1.0651235683011E+00 -6.9322735043970E-02
    89  8.8000000000000E-01  1.0630986647616E+00 -5.8331037321954E-02
    90  8.9000000000000E-01  1.0607227868399E+00 -4.7088422890141E-02
    91  9.0000000000000E-01  1.0579971061629E+00 -3.5596392531803E-02
    92  9.1000000000000E-01  1.0549228777399E+00 -2.3856496597944E-02
    93  9.2000000000000E-01  1.0515014432345E+00 -1.1870344739037E-02
    94  9.3000000000000E-01  1.0477342344780E+00  3.6038381221186E-04
    95  9.4000000000000E-01  1.0436227772109E+00  1.2833929440202E-02
    96  9.5000000000000E-01  1.0391686950395E+00  2.5548440863092E-02
    97  9.6000000000000E-01  1.0343737135923E+00  3.8501963404366E-02
    98  9.7000000000000E-01  1.0292396648611E+00  5.1692426858803E-02
    99  9.8000000000000E-01  1.0237684917093E+00  6.5117632994527E-02
   100  9.9000000000000E-01  1.0179622525314E+00  7.8775242734570E-02
   101  1.0000000000000E+00  1.0118231260439E+00  9.2662763063161E-02
   102  1.0100000000000E+00  1.0053534161901E+00  1.0677753370362E-01
   103  1.0200000000000E+00  9.9855555713918E-01  1.2111671361636E-01
   104  1.0300000000000E+00  9.9143211835769E-01  1.3567726736664E-01
   105  1.0400000000000E+00  9.8398580973498E-01  1.5045595141330E-01
   106  1.0500000000000E+00  9.7621948673972E-01  1.6544930037044E-01
   107  1.0600000000000E+00  9.6813615558635E-01  1.8065361329541E-01
   108  1.0700000000000E+00  9.5973897838925E-01  1.9606494005699E-01
   109  1.0800000000000E+00  9.5103127828219E-01  2.1167906783832E-01
   110  1.0900000000000E+00  9.4201654448034E-01  2.2749150782990E-01
   111  1.1000000000000E+00  9.3269843726187E-01  2.4349748216815E-01
   112  1.1100000000000E+00  9.2308079284616E-01  2.5969191117522E-01
   113  1.1200000000000E+00  9.1316762814547E-01  2.7606940095590E-01
   114  1.1300000000000E+00  9.0296314536691E-01  2.9262423140726E-01
   115  1.1400000000000E+00  8.9247173644167E-01  3.0935034469654E-01
   116  1.1500000000000E+00  8.8169798725869E-01  3.2624133426204E-01
   117  1.1600000000000E+00  8.7064668167980E-01  3.4329043439155E-01
   118  1.1700000000000E+00  8.5932280531416E-01  3.6049051043185E-01
   119  1.1800000000000E+00  8.4773154902966E-01  3.7783404968181E-01
   120  1.1900000000000E+00  8.3587831217967E-01  3.9531315302097E-01
   121  1.2000000000000E+00  8.2376870552390E-01  4.1291952732342E-01
   122  1.2100000000000E+00  8.1140855382249E-01  4.3064447870638E-01
   123  1.2200000000000E+00  7.9880389808350E-01  4.4847890666051E-01
   124  1.2300000000000E+00  7.8596099744407E-01  4.6641329910755E-01
   125  1.2400000000000E+00  7.7288633066659E-01  4.8443772842915E-01
   126  1.2500000000000E+00  7.5958659723205E-01  5.0254184850862E-01
   127  1.2600000000000E+00  7.4606871801329E-01  5.2071489282493E-01
   128  1.2700000000000E+00  7.3233983551203E-01  5.3894567363644E-01
   129  1.2800000000000E+00  7.1840731364435E-01  5.5722258228906E-01
   130  1.2900000000000E+00  7.0427873706050E-01  5.7553359068105E-01
   131  1.3000000000000E+00  6.8996190998570E-01  5.9386625391417E-01
   132  1.3100000000000E+00  6.7546485456987E-01  6.1220771415772E-01
   133  1.3200000000000E+00  6.6079580873546E-01  6.3054470574935E-01
   134  1.3300000000000E+00  6.4596322351349E-01  6.4886356155355E-01
   135  1.3400000000000E+00  6.3097575985944E-01  6.6715022059534E-01
   136  1.3500000000000E+00  6.1584228494158E-01  6.8539023698372E-01
   137  1.3600000000000E+00  6.0057186789605E-01  7.0356879013576E-01
   138  1.3700000000000E+00  5.8517377504389E-01  7.2167069630953E-01
   139  1.3800000000000E+00  5.6965746456694E-01  7.3968042144973E-01
   140  1.3900000000000E+00  5.5403258064078E-01  7.5758209534699E-01
   141  1.4000000000000E+00  5.3830894702423E-01  7.7535952710819E-01
   142  1.4100000000000E+00  5.2249656010659E-01  7.9299622193106E-01
   143  1.4200000000000E+00  5.0660558141497E-01  8.1047539917330E-01
   144  1.4300000000000E+00  4.9064632958569E-01  8.2778001170241E-01
   145  1.4400000000000E+00  4.7462927180532E-01  8.4489276650869E-01
   146  1.4500000000000E+00  4.5856501472799E-01  8.6179614656036E-01
   147  1.4600000000000E+00  4.4246429487760E-01  8.7847243387606E-01
   148  1.4700000000000E+00  4.2633796854464E-01  8.9490373378582E-01
   149  1.4800000000000E+00  4.1019700118893E-01  9.1107200034875E-01
   150  1.4900000000000E+00  3.9405245636111E-01  9.2695906289116E-01
   151  1.5000000000000E+00  3.7791548415708E-01  9.4254665362581E-01
   152  1.5100000000000E+00  3.6179730922101E-01  9.5781643630912E-01
   153  1.5200000000000E+00  3.4570921831389E-01  9.7275003588979E-01
   154  1.5300000000000E+00  3.2966254746622E-01  9.8732906909882E-01
   155  1.5400000000000E+00  3.1366866873442E-01  1.0015351759273E+00
   156  1.5500000000000E+00  2.9773897658216E-01  1.0153500519358E+00
   157  1.5600000000000E+00  2.8188487390890E-01  1.0287554813341E+00
   158  1.5700000000000E+00  2.6611775774929E-01  1.0417333707707E+00
   159  1.5800000000000E+00  2.5044900466827E-01  1.0542657837628E+00
   160  1.5900000000000E+00  2.3488995587769E-01  1.0663349757010E+00
   161  1.6000000000000E+00  2.1945190210172E-01  1.0779234293552E+00
   162  1.6100000000000E+00  2.0414606821894E-01  1.0890138908079E+00
   163  1.6200000000000E+00  1.8898359771039E-01  1.0995894057381E+00
   164  1.6300000000000E+00  1.7397553694349E-01  1.1096333559777E+00
   165  1.6400000000000E+00  1.5913281932291E-01  1.1191294962577E+00
   166  1.6500000000000E+00  1.4446624933996E-01  1.1280619910617E+00
   167  1.6600000000000E+00  1.2998648655305E-01  1.1364154515027E+00
   168  1.6700000000000E+00  1.1570402953236E-01  1.1441749721347E+00
   169  1.6800000000000E+00  1.0162919980258E-01  1.1513261676119E+00
   170  1.6900000000000E+00  8.7772125817835E-02  1.1578552091073E+00
   171  1.7000000000000E+00  7.4142727003635E-02  1.1637488603973E+00
   172  1.7100000000000E+00  6.0750697901095E-02  1.1689945135244E+00
   173  1.7200000000000E+00  4.7605492448664E-02  1.1735802239427E+00
   174  1.7300000000000E+00  3.4716308437166E-02  1.1774947450573E+00
   175  1.7400000000000E+00  2.2092072173940E-02  1.1807275620604E+00
   176  1.7500000000000E+00  9.7414233919108E-03  1.1832689249758E+00
   177  1.7600000000000E+00 -2.3272995605262E-03  1.1851098808162E+00
   178  1.7700000000000E+00 -1.4106074213034E-02  1.1862423047612E+00
   179  1.7800000000000E+00 -2.5587208114754E-02  1.1866589302667E+00
   180  1.7900000000000E+00 -3.6763352588286E-02  1.1863533780114E+00
   181  1.8000000000000E+00 -4.7627516061290E-02  1.1853201835934E+00
   182  1.8100000000000E+00 -5.8173076941192E-02  1.1835548238863E+00
   183  1.8200000000000E+00 -6.8393795998975E-02  1.1810537419695E+00
   184  1.8300000000000E+00 -7.8283828228711E-02  1.1778143705452E+00
   185  1.8400000000000E+00 -8.7837734150025E-02  1.1738351537603E+00
   186  1.8500000000000E+00 -9.7050490521594E-02  1.1691155673504E+00
   187  1.8600000000000E+00 -1.0591750043451E-01  1.1636561370277E+00
   188  1.8700000000000E+00 -1.1443460275531E-01  1.1574584550349E+00
   189  1.8800000000000E+00 -1.2259808088941E-01  1.1505251947923E+00
   190  1.8900000000000E+00 -1.3040467083681E-01  1.1428601235664E+00
   191  1.9000000000000E+00 -1.3785156851294E-01  1.1344681130917E+00
   192  1.9100000000000E+00 -1.4493643630897E-01  1.1253551480810E+00
   193  1.9200000000000E+00 -1.5165740886677E-01  1.1155283325633E+00
   194  1.9300000000000E+00 -1.5801309804546E-01  1.1049958939905E+00
   195  1.9400000000000E+00 -1.6400259705758E-01  1.0937671850603E+00
   196  1.9500000000000E+00 -1.6962548375448E-01  1.0818526832027E+00
   197  1.9600000000000E+00 -1.7488182304197E-01  1.0692639876872E+00
   198  1.9700000000000E+00 -1.7977216840893E-01  1.0560138143056E+00
   199  1.9800000000000E+00 -1.8429756255297E-01  1.0421159875948E+00
   200  1.9900000000000E+00 -1.8845953708912E-01  1.0275854305652E+00
   201  2.0000000000000E+00 -1.9226011132894E-01  1.0124381519063E+00
   202  2.0100000000000E+00 -1.9570179011940E-01  9.9669123064594E-01
   203  2.0200000000000E+00 -1.9878756073247E-01  9.8036279824205E-01
   204  2.0300000000000E+00 -2.0152088879815E-01  9.6347201809399E-01
   205  2.0400000000000E+00 -2.0390571327546E-01  9.4603906246237E-01
   206  2.0500000000000E+00 -2.0594644045785E-01  9.2808508679275E-01
   207  2.0600000000000E+00 -2.0764793701111E-01  9.0963220144294E-01
   208  2.0700000000000E+00 -2.0901552204377E-01  8.9070344081867E-01
   209  2.0800000000000E+00 -2.1005495821206E-01  8.7132272992751E-01
   210  2.0900000000000E+00 -2.1077244186277E-01  8.5151484836527E-01
   211  2.1000000000000E+00 -2.1117459221993E-01  8.3130539175487E-01
   212  2.1100000000000E+00 -2.1126843962236E-01  8.1072073066202E-01
   213  2.1200000000000E+00 -2.1106141282155E-01  7.8978796701695E-01
   214  2.1300000000000E+00 -2.1056132535067E-01  7.6853488807679E-01
   215  2.1400000000000E+00 -2.0977636097752E-01  7.4698991796681E-01
   216  2.1500000000000E+00 -2.0871505825602E-01  7.2518206684504E-01
   217  2.1600000000000E+00 -2.0738629419242E-01  7.0314087773799E-01
   218  2.1700000000000E+00 -2.0579926704427E-01  6.8089637110055E-01
   219  2.1800000000000E+00 -2.0396347827161E-01  6.5847898715730E-01
   220  2.1900000000000E+00 -2.0188871366170E-01  6.3591952608655E-01
   221  2.2000000000000E+00 -1.9958502365008E-01  6.1324908611323E-01
   222  2.2100000000000E+00 -1.9706270286217E-01  5.9049899958022E-01
   223  2.2200000000000E+00 -1.9433226890134E-01  5.6770076707203E-01
   224  2.2300000000000E+00 -1.9140444041041E-01  5.4488598966803E-01
   225  2.2400000000000E+00 -1.8829011443527E-01  5.2208629940652E-01
   226  2.2500000000000E+00 -1.8500034312038E-01  4.9933328804430E-01
   227  2.2600000000000E+00 -1.8154630976726E-01  4.7665843419935E-01
   228  2.2700000000000E+00 -1.7793930428794E-01  4.5409302896731E-01
   229  2.2800000000000E+00 -1.7419069808692E-01  4.3166810010583E-01
   230  2.2900000000000E+00 -1.7031191840580E-01  4.0941433488307E-01
   231  2.3000000000000E+00 -1.6631442216574E-01  3.8736200168925E-01
   232  2.3100000000000E+00 -1.6220966934395E-01  3.6554087051230E-01
   233  2.3200000000000E+00 -1.5800909592099E-01  3.4398013238098E-01
   234  2.3300000000000E+00 -1.5372408643656E-01  3.2270831788064E-01
   235  2.3400000000000E+00 -1.4936594619178E-01  3.0175321484813E-01
   236  2.3500000000000E+00 -1.4494587313690E-01  2.8114178535395E-01
   237  2.3600000000000E+00 -1.4047492948349E-01  2.6090008208127E-01
   238  2.3700000000000E+00 -1.3596401308079E-01  2.4105316421173E-01
   239  2.3800000000000E+00 -1.3142382859592E-01  2.2162501292923E-01
   240  2.3900000000000E+00 -1.2686485853823E-01  2.0263844665318E-01
   241  2.4000000000000E+00 -1.2229733416787E-01  1.8411503611311E-01
   242  2.4100000000000E+00 -1.1773120632886E-01  1.6607501937651E-01
   243  2.4200000000000E+00 -1.1317611624693E-01  1.4853721694168E-01
   244  2.4300000000000E+00 -1.0864136633224E-01  1.3151894700712E-01
   245  2.4400000000000E+00 -1.0413589102689E-01  1.1503594102821E-01
   246  2.4500000000000E+00 -9.9668227736997E-02  9.9102259671524E-02
   247  2.4600000000000E+00 -9.5246487888541E-02  8.3730209275765E-02
   248  2.4700000000000E+00 -9.0878328035009E-02  6.8930258348610E-02
   249  2.4800000000000E+00 -8.6570921815851E-02  5.4710958170882E-02
   250  2.4900000000000E+00 -8.2330929698424E-02  4.1078851555048E-02
   251  2.5000000000000E+00 -7.8164479537608E-02  2.8038436764660E-02
   252  2.5100000000000E+00 -7.4077113671889E-02  1.5591957995790E-02
   253  2.5200000000000E+00 -7.0073808797131E-02  3.7395726795070E-03
   254  2.5300000000000E+00 -6.6159068715734E-02 -7.5201036266049E-03
   255  2.5400000000000E+00 -6.2337030988740E-02 -1.8189418155749E-02
   256  2.5500000000000E+00 -5.8611520833073E-02 -2.8271388587568E-02
   257  2.5600000000000E+00 -5.4986026241537E-02 -3.7769833773562E-02
   258  2.5700000000000E+00 -5.1463706717053E-02 -4.6689325674451E-02
   259  2.5800000000000E+00 -4.8047393120296E-02 -5.5035190891992E-02
   260  2.5900000000000E+00 -4.4739590402922E-02 -6.2813498460310E-02
   261  2.6000000000000E+00 -4.1542480169230E-02 -7.0031050210532E-02
   262  2.6100000000000E+00 -3.8457923951185E-02 -7.6695368982868E-02
   263  2.6200000000000E+00 -3.5487467049123E-02 -8.2814685451607E-02
   264  2.6300000000000E+00 -3.2632342930271E-02 -8.8397923579703E-02
   265  2.6400000000000E+00 -2.9893478174664E-02 -9.3454684726532E-02
   266  2.6500000000000E+00 -2.7271497958741E-02 -9.7995230430534E-02
   267  2.6600000000000E+00 -2.4766732064652E-02 -1.0203046389455E-01
   268  2.6700000000000E+00 -2.2379221401584E-02 -1.0557191020645E-01
   269  2.6800000000000E+00 -2.0108725026409E-02 -1.0863169532496E-01
   270  2.6900000000000E+00 -1.7954727647444E-02 -1.1122252387009E-01
   271  2.7000000000000E+00 -1.5916447595178E-02 -1.1335765575770E-01
   272  2.7100000000000E+00 -1.3992845243742E-02 -1.1505088171765E-01
   273  2.7200000000000E+00 -1.2182631863415E-02 -1.1631649774494E-01
   274  2.7300000000000E+00 -1.0484278886029E-02 -1.1716927852878E-01
   275  2.7400000000000E+00 -8.8960275629694E-03 -1.1762444991040E-01
   276  2.7500000000000E+00 -7.4158989938830E-03 -1.1769766042537E-01
   277  2.7600000000000E+00 -6.0417045057088E-03 -1.1740495198141E-01
   278  2.7700000000000E+00 -4.7710563579297E-03 -1.1676272973353E-01
   279  2.7800000000000E+00 -3.6013787513077E-03 -1.1578773121456E-01
   280  2.7900000000000E+00 -2.5299191162059E-03 -1.1449699478205E-01
   281  2.8000000000000E+00 -1.5537596547344E-03 -1.1290782744833E-01
   282  2.8100000000000E+00 -6.6982911261577E-04 -1.1103777215544E-01
   283  2.8200000000000E+00  1.2508524623911E-04 -1.0890457456533E-01
   284  2.8300000000000E+00  8.3432548835301E-04 -1.0652614943233E-01
   285  2.8400000000000E+00  1.4613507092095E-03 -1.0392054662730E-01
   286  2.8500000000000E+00  2.0097246094606E-03 -1.0110591688628E-01
   287  2.8600000000000E+00  2.4831029756542E-03 -9.8100477353435E-02
   288  2.8700000000000E+00  2.8852210938178E-03 -9.4922476992758E-02
   289  2.8800000000000E+00  3.2198811233132E-03 -9.1590161940181E-02
   290  2.8900000000000E+00  3.4909394594813E-03 -8.8121740871321E-02
   291  2.9000000000000E+00  3.7022941128641E-03 -8.4535350458140E-02
   292  2.9100000000000E+00  3.8578721335149E-03 -8.0849020989519E-02
   293  2.9200000000000E+00  3.9616171079506E-03 -7.7080642228757E-02
   294  2.9300000000000E+00  4.0174767568721E-03 -7.3247929581876E-02
   295  2.9400000000000E+00  4.0293906613920E-03 -6.9368390650718E-02
   296  2.9500000000000E+00  4.0012781448676E-03 -6.5459292242613E-02
   297  2.9600000000000E+00  3.9370263383183E-03 -6.1537627910717E-02
   298  2.9700000000000E+00  3.8404784544488E-03 -5.7620086091797E-02
   299  2.9800000000000E+00  3.7154222988815E-03 -5.3723018917265E-02
   300  2.9900000000000E+00  3.5655801555526E-03 -4.9862414948691E-02
   301  3.0000000000000E+00  3.3945934884367E-03 -4.6053857054515E-02
   302  3.0100000000000E+00  3.2060127448438E-03 -4.2312494930336E-02
   303  3.0200000000000E+00  3.0033088580971E-03 -3.8653079414979E-02
   304  3.0300000000000E+00  2.7898206536768E-03 -3.5089813604304E-02
   305  3.0400000000000E+00  2.5687817021629E-03 -3.1636432696235E-02
   306  3.0500000000000E+00  2.3431663658061E-03 -2.8305762404552E-02
   307  3.0600000000000E+00  2.1152615424784E-03 -2.5108491418497E-02
   308  3.0700000000000E+00  1.8874201424686E-03 -2.2055331354371E-02
   309  3.0800000000000E+00  1.6625639678346E-03 -1.9158458334623E-02
   310  3.0900000000000E+00  1.4435244371307E-03 -1.6429631177373E-02
   311  3.1000000000000E+00  1.2328264376257E-03 -1.3879576099258E-02
   312  3.1100000000000E+00  1.0328400401473E-03 -1.1518420133219E-02
   313  3.1200000000000E+00  8.4574852194140E-04 -9.3556004323403E-03
   314  3.1300000000000E+00  6.7353474892557E-04 -7.3998263728418E-03
   315  3.1400000000000E+00  5.1797970455476E-04 -5.6590759871235E-03
   316  3.1500000000000E+00  3.8065527906033E-04 -4.1405760054879E-03
   317  3.1600000000000E+00  2.6301639636518E-04 -2.8518388299059E-03
   318  3.1700000000000E+00  1.6591029838588E-04 -1.7953303102936E-03
   319  3.1800000000000E+00  8.9983304295456E-05 -9.7298079765497E-04
   320  3.1900000000000E+00  3.7821283219334E-05 -4.0935911727591E-04
   321  3.2000000000000E+00  9.4792329527615E-06 -1.0320556046178E-04
   322  3.2100000000000E+00 -1.1043202994483E-06  1.1385578921146E-05
   323  3.2200000000000E+00 -1.6654910583485E-06  1.7792925412271E-05
   324  3.23  0.  0.
   325  3.24  0.  0.
   326  3.25  0.  0.
   327  3.26  0.  0.
   328  3.27  0.  0.
   329  3.28  0.  0.
   330  3.29  0.  0.
   331  3.30  0.  0.
   332  3.31  0.  0.
   333  3.32  0.  0.
   334  3.33  0.  0.
   335  3.34  0.  0.
   336  3.35  0.  0.
   337  3.36  0.  0.
   338  3.37  0.  0.
   339  3.38  0.  0.
   340  3.39  0.  0.
   341  3.40  0.  0.
   342  3.41  0.  0.
   343  3.42  0.  0.
   344  3.43  0.  0.
   345  3.44  0.  0.
   346  3.45  0.  0.
   347  3.46  0.  0.
   348  3.47  0.  0.
   349  3.48  0.  0.
   350  3.49  0.  0.
   351  3.50  0.  0.
   352  3.51  0.  0.
   353  3.52  0.  0.
   354  3.53  0.  0.
   355  3.54  0.  0.
   356  3.55  0.  0.
   357  3.56  0.  0.
   358  3.57  0.  0.
   359  3.58  0.  0.
   360  3.59  0.  0.
   361  3.60  0.  0.
   362  3.61  0.  0.
   363  3.62  0.  0.
   364  3.63  0.  0.
   365  3.64  0.  0.
   366  3.65  0.  0.
   367  3.66  0.  0.
   368  3.67  0.  0.
   369  3.68  0.  0.
   370  3.69  0.  0.
   371  3.70  0.  0.
   372  3.71  0.  0.
   373  3.72  0.  0.
   374  3.73  0.  0.
   375  3.74  0.  0.
   376  3.75  0.  0.
   377  3.76  0.  0.
   378  3.77  0.  0.
   379  3.78  0.  0.
   380  3.79  0.  0.
   381  3.80  0.  0.
   382  3.81  0.  0.
   383  3.82  0.  0.
   384  3.83  0.  0.
   385  3.84  0.  0.
   386  3.85  0.  0.
   387  3.86  0.  0.
   388  3.87  0.  0.
   389  3.88  0.  0.
   390  3.89  0.  0.
   391  3.90  0.  0.
   392  3.91  0.  0.
   393  3.92  0.  0.
   394  3.93  0.  0.
   395  3.94  0.  0.
   396  3.95  0.  0.
   397  3.96  0.  0.
   398  3.97  0.  0.
   399  3.98  0.  0.
   400  3.99  0.  0.
   401  4.00  0.  0.
   402  4.01  0.  0.
   403  4.02  0.  0.
   404  4.03  0.  0.
   405  4.04  0.  0.
   406  4.05  0.  0.
   407  4.06  0.  0.
   408  4.07  0.  0.
   409  4.08  0.  0.
   410  4.09  0.  0.
   411  4.10  0.  0.
   412  4.11  0.  0.
   413  4.12  0.  0.
   414  4.13  0.  0.
   415  4.14  0.  0.
   416  4.15  0.  0.
   417  4.16  0.  0.
   418  4.17  0.  0.
   419  4.18  0.  0.
   420  4.19  0.  0.
   421  4.20  0.  0.
   422  4.21  0.  0.
   423  4.22  0.  0.
   424  4.23  0.  0.
   425  4.24  0.  0.
   426  4.25  0.  0.
   427  4.26  0.  0.
   428  4.27  0.  0.
   429  4.28  0.  0.
   430  4.29  0.  0.
   431  4.30  0.  0.
   432  4.31  0.  0.
   433  4.32  0.  0.
   434  4.33  0.  0.
   435  4.34  0.  0.
   436  4.35  0.  0.
   437  4.36  0.  0.
   438  4.37  0.  0.
   439  4.38  0.  0.
   440  4.39  0.  0.
   441  4.40  0.  0.
   442  4.41  0.  0.
   443  4.42  0.  0.
   444  4.43  0.  0.
   445  4.44  0.  0.
   446  4.45  0.  0.
   447  4.46  0.  0.
   448  4.47  0.  0.
   449  4.48  0.  0.
   450  4.49  0.  0.
   451  4.50  0.  0.
   452  4.51  0.  0.
   453  4.52  0.  0.
   454  4.53  0.  0.
   455  4.54  0.  0.
   456  4.55  0.  0.
   457  4.56  0.  0.
   458  4.57  0.  0.
   459  4.58  0.  0.
   460  4.59  0.  0.
   461  4.60  0.  0.
   462  4.61  0.  0.
   463  4.62  0.  0.
   464  4.63  0.  0.
   465  4.64  0.  0.
   466  4.65  0.  0.
   467  4.66  0.  0.
   468  4.67  0.  0.
   469  4.68  0.  0.
   470  4.69  0.  0.
   471  4.70  0.  0.
   472  4.71  0.  0.
   473  4.72  0.  0.
   474  4.73  0.  0.
   475  4.74  0.  0.
   476  4.75  0.  0.
   477  4.76  0.  0.
   478  4.77  0.  0.
   479  4.78  0.  0.
   480  4.79  0.  0.
   481  4.80  0.  0.
   482  4.81  0.  0.
   483  4.82  0.  0.
   484  4.83  0.  0.
   485  4.84  0.  0.
   486  4.85  0.  0.
   487  4.86  0.  0.
   488  4.87  0.  0.
   489  4.88  0.  0.
   490  4.89  0.  0.
   491  4.90  0.  0.
   492  4.91  0.  0.
   493  4.92  0.  0.
   494  4.93  0.  0.
   495  4.94  0.  0.
   496  4.95  0.  0.
   497  4.96  0.  0.
   498  4.97  0.  0.
   499  4.98  0.  0.
   500  4.99  0.  0.
   501  5.00  0.  0.
   502  5.01  0.  0.
   503  5.02  0.  0.
   504  5.03  0.  0.
   505  5.04  0.  0.
   506  5.05  0.  0.
   507  5.06  0.  0.
   508  5.07  0.  0.
   509  5.08  0.  0.
   510  5.09  0.  0.
   511  5.10  0.  0.
   512  5.11  0.  0.
   513  5.12  0.  0.
   514  5.13  0.  0.
   515  5.14  0.  0.
   516  5.15  0.  0.
   517  5.16  0.  0.
   518  5.17  0.  0.
   519  5.18  0.  0.
   520  5.19  0.  0.
   521  5.20  0.  0.
   522  5.21  0.  0.
   523  5.22  0.  0.
   524  5.23  0.  0.
   525  5.24  0.  0.
   526  5.25  0.  0.
   527  5.26  0.  0.
   528  5.27  0.  0.
   529  5.28  0.  0.
   530  5.29  0.  0.
   531  5.30  0.  0.
   532  5.31  0.  0.
   533  5.32  0.  0.
   534  5.33  0.  0.
   535  5.34  0.  0.
   536  5.35  0.  0.
   537  5.36  0.  0.
   538  5.37  0.  0.
   539  5.38  0.  0.
   540  5.39  0.  0.
   541  5.40  0.  0.
   542  5.41  0.  0.
   543  5.42  0.  0.
   544  5.43  0.  0.
   545  5.44  0.  0.
   546  5.45  0.  0.
   547  5.46  0.  0.
   548  5.47  0.  0.
   549  5.48  0.  0.
   550  5.49  0.  0.
   551  5.50  0.  0.
   552  5.51  0.  0.
   553  5.52  0.  0.
   554  5.53  0.  0.
   555  5.54  0.  0.
   556  5.55  0.  0.
   557  5.56  0.  0.
   558  5.57  0.  0.
   559  5.58  0.  0.
   560  5.59  0.  0.
   561  5.60  0.  0.
   562  5.61  0.  0.
   563  5.62  0.  0.
   564  5.63  0.  0.
   565  5.64  0.  0.
   566  5.65  0.  0.
   567  5.66  0.  0.
   568  5.67  0.  0.
   569  5.68  0.  0.
   570  5.69  0.  0.
   571  5.70  0.  0.
   572  5.71  0.  0.
   573  5.72  0.  0.
   574  5.73  0.  0.
   575  5.74  0.  0.
   576  5.75  0.  0.
   577  5.76  0.  0.
   578  5.77  0.  0.
   579  5.78  0.  0.
   580  5.79  0.  0.
   581  5.80  0.  0.
   582  5.81  0.  0.
   583  5.82  0.  0.
   584  5.83  0.  0.
   585  5.84  0.  0.
   586  5.85  0.  0.
   587  5.86  0.  0.
   588  5.87  0.  0.
   589  5.88  0.  0.
   590  5.89  0.  0.
   591  5.90  0.  0.
   592  5.91  0.  0.
   593  5.92  0.  0.
   594  5.93  0.  0.
   595  5.94  0.  0.
   596  5.95  0.  0.
   597  5.96  0.  0.
   598  5.97  0.  0.
   599  5.98  0.  0.
   600  5.99  0.  0.
   601  6.00  0.  0.
   602  6.01  0.  0.
   603  6.02  0.  0.
   604  6.03  0.  0.
   605  6.04  0.  0.
   606  6.05  0.  0.
   607  6.06  0.  0.
   608  6.07  0.  0.
   609  6.08  0.  0.
   610  6.09  0.  0.
   611  6.10  0.  0.
   612  6.11  0.  0.
   613  6.12  0.  0.
   614  6.13  0.  0.
   615  6.14  0.  0.
   616  6.15  0.  0.
   617  6.16  0.  0.
   618  6.17  0.  0.
   619  6.18  0.  0.
   620  6.19  0.  0.
   621  6.20  0.  0.
   622  6.21  0.  0.
   623  6.22  0.  0.
   624  6.23  0.  0.
   625  6.24  0.  0.
   626  6.25  0.  0.
   627  6.26  0.  0.
   628  6.27  0.  0.
   629  6.28  0.  0.
   630  6.29  0.  0.
   631  6.30  0.  0.
   632  6.31  0.  0.
   633  6.32  0.  0.
   634  6.33  0.  0.
   635  6.34  0.  0.
   636  6.35  0.  0.
   637  6.36  0.  0.
   638  6.37  0.  0.
   639  6.38  0.  0.
   640  6.39  0.  0.
   641  6.40  0.  0.
   642  6.41  0.  0.
   643  6.42  0.  0.
   644  6.43  0.  0.
   645  6.44  0.  0.
   646  6.45  0.  0.
   647  6.46  0.  0.
   648  6.47  0.  0.
   649  6.48  0.  0.
   650  6.49  0.  0.
   651  6.50  0.  0.
   652  6.51  0.  0.
   653  6.52  0.  0.
   654  6.53  0.  0.