<?xml version="1.0" encoding="UTF-8" ?>
<psml version="0.8" energy_unit="hartree" length_unit="bohr">
<provenance creator="ONCVPSP-2.1.2+psml" date="2024-06-11">
<input-file name="oncvpsp-input">
# ATOM AND REFERENCE CONFIGURATION
# atsym  z    nc    nv    iexc   psfile
  Hg 80.00    12     2     3      both
#
#   n    l    f        energy (Ha)
    1    0    2.00
    2    0    2.00
    2    1    6.00
    3    0    2.00
    3    1    6.00
    3    2   10.00
    4    0    2.00
    4    1    6.00
    4    2   10.00
    4    3   14.00
    5    0    2.00
    5    1    6.00
    5    2   10.00
    6    0    2.00
#
# PSEUDOPOTENTIAL AND OPTIMIZATION
# lmax
    3
#
#   l,   rc,     ep,   ncon, nbas, qcut
    0    3.21    0.00    4    7    4.00
    1    3.00    0.10    4    7    4.00
    2    2.51    0.00    4    8    6.00
    3    3.00    0.30    4    8    4.50
#
# LOCAL POTENTIAL
# lloc, lpopt,  rc(5),   dvloc0
    4    3      2.51       0.00
#
# VANDERBILT-KLEINMAN-BYLANDER PROJECTORs
# l, nproj, debl
    0    2    1.0000
    1    2    1.0000
    2    2    1.2000
    3    2    1.0000
#
# MODEL CORE CHARGE
# icmod, fcfact
    0    0.00
#
# LOG DERIVATIVE ANALYSIS
# epsh1, epsh2, depsh
   -2.00    3.00    0.02
#
# OUTPUT GRID
# rlmax, drl
    7.00    0.01
#
# TEST CONFIGURATIONS
# ncnf
    3
# nvcnf
#   n    l    f
    2
    5    2   10.00
    6    0    1.00
#
    3
    5    2   10.00
    6    0    1.00
    6    1    1.00
#
    2
    5    2   10.00
    6    1    1.00
#
</input-file>
</provenance>
<header atomic-label="Hg" atomic-number="80." z-pseudo="12."
 flavor="Hamann's oncvpsp" relativity="dirac" polarized="no"
 core-corrections="no">
<exchange-correlation>
<annotation oncvpsp-xc-code="3" oncvpsp-xc-type="LDA"
 oncvpsp-xc-authors="Ceperley-Alder PZ" />
<libxc-info number-of-functionals="2">
<functional name="XC_LDA_X" type="XC_EXCHANGE" id="1" />
<functional name="XC_LDA_C_PZ" type="XC_CORRELATION" id="9" />
</libxc-info>
</exchange-correlation>
<valence-configuration total-valence-charge="12.">
<shell n="5" l="d" occupation="10." />
<shell n="6" l="s" occupation="2." />
</valence-configuration>
</header>
<grid npts="2640">
<annotation type="oncvpsp plus r=0" oncvpsp-npts="2639"
 oncvpsp-r1="0.625000000000E-05" oncvpsp-factor="1.00600000000" />
<grid-data>
  0.000000000000E+00  6.250000000000E-06  6.287500000000E-06  6.325225000000E-06
  6.363176350000E-06  6.401355408100E-06  6.439763540549E-06  6.478402121792E-06
  6.517272534523E-06  6.556376169730E-06  6.595714426748E-06  6.635288713309E-06
  6.675100445588E-06  6.715151048262E-06  6.755441954552E-06  6.795974606279E-06
  6.836750453917E-06  6.877770956640E-06  6.919037582380E-06  6.960551807874E-06
  7.002315118721E-06  7.044329009434E-06  7.086594983490E-06  7.129114553391E-06
  7.171889240712E-06  7.214920576156E-06  7.258210099613E-06  7.301759360211E-06
  7.345569916372E-06  7.389643335870E-06  7.433981195885E-06  7.478585083061E-06
  7.523456593559E-06  7.568597333120E-06  7.614008917119E-06  7.659692970622E-06
  7.705651128445E-06  7.751885035216E-06  7.798396345427E-06  7.845186723500E-06
  7.892257843841E-06  7.939611390904E-06  7.987249059249E-06  8.035172553605E-06
  8.083383588927E-06  8.131883890460E-06  8.180675193803E-06  8.229759244966E-06
  8.279137800436E-06  8.328812627238E-06  8.378785503002E-06  8.429058216020E-06
  8.479632565316E-06  8.530510360708E-06  8.581693422872E-06  8.633183583409E-06
  8.684982684910E-06  8.737092581019E-06  8.789515136505E-06  8.842252227324E-06
  8.895305740688E-06  8.948677575132E-06  9.002369640583E-06  9.056383858426E-06
  9.110722161577E-06  9.165386494547E-06  9.220378813514E-06  9.275701086395E-06
  9.331355292913E-06  9.387343424671E-06  9.443667485219E-06  9.500329490130E-06
  9.557331467071E-06  9.614675455873E-06  9.672363508609E-06  9.730397689660E-06
  9.788780075798E-06  9.847512756253E-06  9.906597832790E-06  9.966037419787E-06
  1.002583364431E-05  1.008598864617E-05  1.014650457805E-05  1.020738360552E-05
  1.026862790715E-05  1.033023967459E-05  1.039222111264E-05  1.045457443932E-05
  1.051730188595E-05  1.058040569727E-05  1.064388813145E-05  1.070775146024E-05
  1.077199796900E-05  1.083662995682E-05  1.090164973656E-05  1.096705963498E-05
  1.103286199279E-05  1.109905916474E-05  1.116565351973E-05  1.123264744085E-05
  1.130004332549E-05  1.136784358545E-05  1.143605064696E-05  1.150466695084E-05
  1.157369495255E-05  1.164313712226E-05  1.171299594500E-05  1.178327392067E-05
  1.185397356419E-05  1.192509740558E-05  1.199664799001E-05  1.206862787795E-05
  1.214103964522E-05  1.221388588309E-05  1.228716919839E-05  1.236089221358E-05
  1.243505756686E-05  1.250966791226E-05  1.258472591973E-05  1.266023427525E-05
  1.273619568090E-05  1.281261285499E-05  1.288948853212E-05  1.296682546331E-05
  1.304462641609E-05  1.312289417459E-05  1.320163153963E-05  1.328084132887E-05
  1.336052637685E-05  1.344068953511E-05  1.352133367232E-05  1.360246167435E-05
  1.368407644440E-05  1.376618090306E-05  1.384877798848E-05  1.393187065641E-05
  1.401546188035E-05  1.409955465163E-05  1.418415197954E-05  1.426925689142E-05
  1.435487243277E-05  1.444100166737E-05  1.452764767737E-05  1.461481356343E-05
  1.470250244481E-05  1.479071745948E-05  1.487946176424E-05  1.496873853483E-05
  1.505855096603E-05  1.514890227183E-05  1.523979568546E-05  1.533123445957E-05
  1.542322186633E-05  1.551576119753E-05  1.560885576472E-05  1.570250889930E-05
  1.579672395270E-05  1.589150429642E-05  1.598685332219E-05  1.608277444213E-05
  1.617927108878E-05  1.627634671531E-05  1.637400479560E-05  1.647224882438E-05
  1.657108231732E-05  1.667050881123E-05  1.677053186410E-05  1.687115505528E-05
  1.697238198561E-05  1.707421627753E-05  1.717666157519E-05  1.727972154464E-05
  1.738339987391E-05  1.748770027315E-05  1.759262647479E-05  1.769818223364E-05
  1.780437132704E-05  1.791119755501E-05  1.801866474034E-05  1.812677672878E-05
  1.823553738915E-05  1.834495061348E-05  1.845502031717E-05  1.856575043907E-05
  1.867714494170E-05  1.878920781135E-05  1.890194305822E-05  1.901535471657E-05
  1.912944684487E-05  1.924422352594E-05  1.935968886710E-05  1.947584700030E-05
  1.959270208230E-05  1.971025829479E-05  1.982851984456E-05  1.994749096363E-05
  2.006717590941E-05  2.018757896487E-05  2.030870443866E-05  2.043055666529E-05
  2.055314000528E-05  2.067645884531E-05  2.080051759838E-05  2.092532070397E-05
  2.105087262820E-05  2.117717786397E-05  2.130424093115E-05  2.143206637674E-05
  2.156065877500E-05  2.169002272765E-05  2.182016286401E-05  2.195108384120E-05
  2.208279034425E-05  2.221528708631E-05  2.234857880883E-05  2.248267028168E-05
  2.261756630337E-05  2.275327170119E-05  2.288979133140E-05  2.302713007939E-05
  2.316529285986E-05  2.330428461702E-05  2.344411032473E-05  2.358477498667E-05
  2.372628363659E-05  2.386864133841E-05  2.401185318644E-05  2.415592430556E-05
  2.430085985140E-05  2.444666501050E-05  2.459334500057E-05  2.474090507057E-05
  2.488935050099E-05  2.503868660400E-05  2.518891872362E-05  2.534005223597E-05
  2.549209254938E-05  2.564504510468E-05  2.579891537531E-05  2.595370886756E-05
  2.610943112076E-05  2.626608770749E-05  2.642368423373E-05  2.658222633914E-05
  2.674171969717E-05  2.690217001535E-05  2.706358303545E-05  2.722596453366E-05
  2.738932032086E-05  2.755365624278E-05  2.771897818024E-05  2.788529204932E-05
  2.805260380162E-05  2.822091942443E-05  2.839024494098E-05  2.856058641062E-05
  2.873194992908E-05  2.890434162866E-05  2.907776767843E-05  2.925223428450E-05
  2.942774769021E-05  2.960431417635E-05  2.978194006141E-05  2.996063170178E-05
  3.014039549199E-05  3.032123786494E-05  3.050316529213E-05  3.068618428388E-05
  3.087030138959E-05  3.105552319792E-05  3.124185633711E-05  3.142930747513E-05
  3.161788331998E-05  3.180759061990E-05  3.199843616362E-05  3.219042678060E-05
  3.238356934129E-05  3.257787075734E-05  3.277333798188E-05  3.296997800977E-05
  3.316779787783E-05  3.336680466510E-05  3.356700549309E-05  3.376840752605E-05
  3.397101797120E-05  3.417484407903E-05  3.437989314350E-05  3.458617250236E-05
  3.479368953738E-05  3.500245167460E-05  3.521246638465E-05  3.542374118296E-05
  3.563628363006E-05  3.585010133184E-05  3.606520193983E-05  3.628159315147E-05
  3.649928271038E-05  3.671827840664E-05  3.693858807708E-05  3.716021960554E-05
  3.738318092317E-05  3.760748000871E-05  3.783312488876E-05  3.806012363810E-05
  3.828848437993E-05  3.851821528621E-05  3.874932457792E-05  3.898182052539E-05
  3.921571144854E-05  3.945100571723E-05  3.968771175154E-05  3.992583802205E-05
  4.016539305018E-05  4.040638540848E-05  4.064882372093E-05  4.089271666326E-05
  4.113807296324E-05  4.138490140102E-05  4.163321080942E-05  4.188301007428E-05
  4.213430813472E-05  4.238711398353E-05  4.264143666743E-05  4.289728528744E-05
  4.315466899916E-05  4.341359701316E-05  4.367407859524E-05  4.393612306681E-05
  4.419973980521E-05  4.446493824404E-05  4.473172787350E-05  4.500011824074E-05
  4.527011895019E-05  4.554173966389E-05  4.581499010187E-05  4.608988004249E-05
  4.636641932274E-05  4.664461783868E-05  4.692448554571E-05  4.720603245898E-05
  4.748926865374E-05  4.777420426566E-05  4.806084949125E-05  4.834921458820E-05
  4.863930987573E-05  4.893114573498E-05  4.922473260939E-05  4.952008100505E-05
  4.981720149108E-05  5.011610470003E-05  5.041680132823E-05  5.071930213620E-05
  5.102361794901E-05  5.132975965671E-05  5.163773821465E-05  5.194756464394E-05
  5.225925003180E-05  5.257280553199E-05  5.288824236518E-05  5.320557181937E-05
  5.352480525029E-05  5.384595408179E-05  5.416902980628E-05  5.449404398512E-05
  5.482100824903E-05  5.514993429852E-05  5.548083390432E-05  5.581371890774E-05
  5.614860122119E-05  5.648549282852E-05  5.682440578549E-05  5.716535222020E-05
  5.750834433352E-05  5.785339439952E-05  5.820051476592E-05  5.854971785451E-05
  5.890101616164E-05  5.925442225861E-05  5.960994879216E-05  5.996760848492E-05
  6.032741413583E-05  6.068937862064E-05  6.105351489236E-05  6.141983598172E-05
  6.178835499761E-05  6.215908512759E-05  6.253203963836E-05  6.290723187619E-05
  6.328467526745E-05  6.366438331905E-05  6.404636961897E-05  6.443064783668E-05
  6.481723172370E-05  6.520613511404E-05  6.559737192473E-05  6.599095615628E-05
  6.638690189321E-05  6.678522330457E-05  6.718593464440E-05  6.758905025227E-05
  6.799458455378E-05  6.840255206110E-05  6.881296737347E-05  6.922584517771E-05
  6.964120024878E-05  7.005904745027E-05  7.047940173497E-05  7.090227814538E-05
  7.132769181425E-05  7.175565796514E-05  7.218619191293E-05  7.261930906441E-05
  7.305502491879E-05  7.349335506831E-05  7.393431519871E-05  7.437792108991E-05
  7.482418861645E-05  7.527313374815E-05  7.572477255063E-05  7.617912118594E-05
  7.663619591305E-05  7.709601308853E-05  7.755858916706E-05  7.802394070207E-05
  7.849208434628E-05  7.896303685236E-05  7.943681507347E-05  7.991343596391E-05
  8.039291657969E-05  8.087527407917E-05  8.136052572365E-05  8.184868887799E-05
  8.233978101126E-05  8.283381969732E-05  8.333082261551E-05  8.383080755120E-05
  8.433379239651E-05  8.483979515089E-05  8.534883392179E-05  8.586092692532E-05
  8.637609248688E-05  8.689434904180E-05  8.741571513605E-05  8.794020942686E-05
  8.846785068343E-05  8.899865778753E-05  8.953264973425E-05  9.006984563266E-05
  9.061026470645E-05  9.115392629469E-05  9.170084985246E-05  9.225105495157E-05
  9.280456128128E-05  9.336138864897E-05  9.392155698087E-05  9.448508632275E-05
  9.505199684069E-05  9.562230882173E-05  9.619604267466E-05  9.677321893071E-05
  9.735385824429E-05  9.793798139376E-05  9.852560928212E-05  9.911676293781E-05
  9.971146351544E-05  1.003097322965E-04  1.009115906903E-04  1.015170602345E-04
  1.021261625959E-04  1.027389195714E-04  1.033553530889E-04  1.039754852074E-04
  1.045993381186E-04  1.052269341474E-04  1.058582957522E-04  1.064934455268E-04
  1.071324061999E-04  1.077752006371E-04  1.084218518409E-04  1.090723829520E-04
  1.097268172497E-04  1.103851781532E-04  1.110474892221E-04  1.117137741574E-04
  1.123840568024E-04  1.130583611432E-04  1.137367113101E-04  1.144191315779E-04
  1.151056463674E-04  1.157962802456E-04  1.164910579271E-04  1.171900042746E-04
  1.178931443003E-04  1.186005031661E-04  1.193121061851E-04  1.200279788222E-04
  1.207481466951E-04  1.214726355753E-04  1.222014713887E-04  1.229346802171E-04
  1.236722882984E-04  1.244143220282E-04  1.251608079603E-04  1.259117728081E-04
  1.266672434449E-04  1.274272469056E-04  1.281918103870E-04  1.289609612494E-04
  1.297347270169E-04  1.305131353790E-04  1.312962141912E-04  1.320839914764E-04
  1.328764954252E-04  1.336737543978E-04  1.344757969242E-04  1.352826517057E-04
  1.360943476160E-04  1.369109137017E-04  1.377323791839E-04  1.385587734590E-04
  1.393901260997E-04  1.402264668563E-04  1.410678256575E-04  1.419142326114E-04
  1.427657180071E-04  1.436223123151E-04  1.444840461890E-04  1.453509504661E-04
  1.462230561689E-04  1.471003945060E-04  1.479829968730E-04  1.488708948542E-04
  1.497641202234E-04  1.506627049447E-04  1.515666811744E-04  1.524760812614E-04
  1.533909377490E-04  1.543112833755E-04  1.552371510757E-04  1.561685739822E-04
  1.571055854261E-04  1.580482189386E-04  1.589965082523E-04  1.599504873018E-04
  1.609101902256E-04  1.618756513669E-04  1.628469052751E-04  1.638239867068E-04
  1.648069306270E-04  1.657957722108E-04  1.667905468441E-04  1.677912901251E-04
  1.687980378659E-04  1.698108260931E-04  1.708296910496E-04  1.718546691959E-04
  1.728857972111E-04  1.739231119944E-04  1.749666506663E-04  1.760164505703E-04
  1.770725492738E-04  1.781349845694E-04  1.792037944768E-04  1.802790172437E-04
  1.813606913471E-04  1.824488554952E-04  1.835435486282E-04  1.846448099200E-04
  1.857526787795E-04  1.868671948522E-04  1.879883980213E-04  1.891163284094E-04
  1.902510263799E-04  1.913925325381E-04  1.925408877334E-04  1.936961330598E-04
  1.948583098581E-04  1.960274597173E-04  1.972036244756E-04  1.983868462224E-04
  1.995771672998E-04  2.007746303036E-04  2.019792780854E-04  2.031911537539E-04
  2.044103006764E-04  2.056367624805E-04  2.068705830554E-04  2.081118065537E-04
  2.093604773930E-04  2.106166402574E-04  2.118803400989E-04  2.131516221395E-04
  2.144305318723E-04  2.157171150636E-04  2.170114177540E-04  2.183134862605E-04
  2.196233671780E-04  2.209411073811E-04  2.222667540254E-04  2.236003545496E-04
  2.249419566769E-04  2.262916084169E-04  2.276493580674E-04  2.290152542158E-04
  2.303893457411E-04  2.317716818156E-04  2.331623119065E-04  2.345612857779E-04
  2.359686534926E-04  2.373844654135E-04  2.388087722060E-04  2.402416248392E-04
  2.416830745883E-04  2.431331730358E-04  2.445919720740E-04  2.460595239065E-04
  2.475358810499E-04  2.490210963362E-04  2.505152229142E-04  2.520183142517E-04
  2.535304241372E-04  2.550516066820E-04  2.565819163221E-04  2.581214078201E-04
  2.596701362670E-04  2.612281570846E-04  2.627955260271E-04  2.643722991832E-04
  2.659585329783E-04  2.675542841762E-04  2.691596098813E-04  2.707745675406E-04
  2.723992149458E-04  2.740336102355E-04  2.756778118969E-04  2.773318787683E-04
  2.789958700409E-04  2.806698452611E-04  2.823538643327E-04  2.840479875187E-04
  2.857522754438E-04  2.874667890965E-04  2.891915898310E-04  2.909267393700E-04
  2.926722998063E-04  2.944283336051E-04  2.961949036067E-04  2.979720730284E-04
  2.997599054665E-04  3.015584648993E-04  3.033678156887E-04  3.051880225829E-04
  3.070191507184E-04  3.088612656227E-04  3.107144332164E-04  3.125787198157E-04
  3.144541921346E-04  3.163409172874E-04  3.182389627911E-04  3.201483965679E-04
  3.220692869473E-04  3.240017026690E-04  3.259457128850E-04  3.279013871623E-04
  3.298687954853E-04  3.318480082582E-04  3.338390963077E-04  3.358421308856E-04
  3.378571836709E-04  3.398843267729E-04  3.419236327335E-04  3.439751745299E-04
  3.460390255771E-04  3.481152597306E-04  3.502039512890E-04  3.523051749967E-04
  3.544190060467E-04  3.565455200830E-04  3.586847932035E-04  3.608369019627E-04
  3.630019233745E-04  3.651799349147E-04  3.673710145242E-04  3.695752406113E-04
  3.717926920550E-04  3.740234482073E-04  3.762675888966E-04  3.785251944300E-04
  3.807963455965E-04  3.830811236701E-04  3.853796104121E-04  3.876918880746E-04
  3.900180394031E-04  3.923581476395E-04  3.947122965253E-04  3.970805703045E-04
  3.994630537263E-04  4.018598320487E-04  4.042709910409E-04  4.066966169872E-04
  4.091367966891E-04  4.115916174692E-04  4.140611671741E-04  4.165455341771E-04
  4.190448073822E-04  4.215590762265E-04  4.240884306838E-04  4.266329612679E-04
  4.291927590355E-04  4.317679155897E-04  4.343585230833E-04  4.369646742218E-04
  4.395864622671E-04  4.422239810407E-04  4.448773249270E-04  4.475465888765E-04
  4.502318684098E-04  4.529332596202E-04  4.556508591780E-04  4.583847643330E-04
  4.611350729190E-04  4.639018833565E-04  4.666852946567E-04  4.694854064246E-04
  4.723023188632E-04  4.751361327763E-04  4.779869495730E-04  4.808548712704E-04
  4.837400004981E-04  4.866424405011E-04  4.895622951441E-04  4.924996689149E-04
  4.954546669284E-04  4.984273949300E-04  5.014179592996E-04  5.044264670554E-04
  5.074530258577E-04  5.104977440128E-04  5.135607304769E-04  5.166420948598E-04
  5.197419474289E-04  5.228603991135E-04  5.259975615082E-04  5.291535468772E-04
  5.323284681585E-04  5.355224389675E-04  5.387355736013E-04  5.419679870429E-04
  5.452197949651E-04  5.484911137349E-04  5.517820604173E-04  5.550927527798E-04
  5.584233092965E-04  5.617738491523E-04  5.651444922472E-04  5.685353592007E-04
  5.719465713559E-04  5.753782507840E-04  5.788305202887E-04  5.823035034105E-04
  5.857973244309E-04  5.893121083775E-04  5.928479810278E-04  5.964050689139E-04
  5.999834993274E-04  6.035834003234E-04  6.072049007253E-04  6.108481301297E-04
  6.145132189105E-04  6.182002982239E-04  6.219095000133E-04  6.256409570133E-04
  6.293948027554E-04  6.331711715720E-04  6.369701986014E-04  6.407920197930E-04
  6.446367719118E-04  6.485045925432E-04  6.523956200985E-04  6.563099938191E-04
  6.602478537820E-04  6.642093409047E-04  6.681945969501E-04  6.722037645318E-04
  6.762369871190E-04  6.802944090417E-04  6.843761754960E-04  6.884824325489E-04
  6.926133271442E-04  6.967690071071E-04  7.009496211497E-04  7.051553188766E-04
  7.093862507899E-04  7.136425682946E-04  7.179244237044E-04  7.222319702466E-04
  7.265653620681E-04  7.309247542405E-04  7.353103027660E-04  7.397221645826E-04
  7.441604975701E-04  7.486254605555E-04  7.531172133188E-04  7.576359165987E-04
  7.621817320983E-04  7.667548224909E-04  7.713553514259E-04  7.759834835344E-04
  7.806393844356E-04  7.853232207422E-04  7.900351600667E-04  7.947753710271E-04
  7.995440232532E-04  8.043412873928E-04  8.091673351171E-04  8.140223391278E-04
  8.189064731626E-04  8.238199120016E-04  8.287628314736E-04  8.337354084624E-04
  8.387378209132E-04  8.437702478387E-04  8.488328693257E-04  8.539258665417E-04
  8.590494217409E-04  8.642037182714E-04  8.693889405810E-04  8.746052742245E-04
  8.798529058698E-04  8.851320233050E-04  8.904428154449E-04  8.957854723375E-04
  9.011601851716E-04  9.065671462826E-04  9.120065491603E-04  9.174785884552E-04
  9.229834599860E-04  9.285213607459E-04  9.340924889104E-04  9.396970438438E-04
  9.453352261069E-04  9.510072374635E-04  9.567132808883E-04  9.624535605736E-04
  9.682282819371E-04  9.740376516287E-04  9.798818775385E-04  9.857611688037E-04
  9.916757358165E-04  9.976257902314E-04  1.003611544973E-03  1.009633214243E-03
  1.015691013528E-03  1.021785159609E-03  1.027915870567E-03  1.034083365790E-03
  1.040287865985E-03  1.046529593181E-03  1.052808770740E-03  1.059125623365E-03
  1.065480377105E-03  1.071873259367E-03  1.078304498924E-03  1.084774325917E-03
  1.091282971873E-03  1.097830669704E-03  1.104417653722E-03  1.111044159644E-03
  1.117710424602E-03  1.124416687150E-03  1.131163187273E-03  1.137950166396E-03
  1.144777867395E-03  1.151646534599E-03  1.158556413807E-03  1.165507752290E-03
  1.172500798803E-03  1.179535803596E-03  1.186613018418E-03  1.193732696528E-03
  1.200895092707E-03  1.208100463264E-03  1.215349066043E-03  1.222641160439E-03
  1.229977007402E-03  1.237356869447E-03  1.244781010663E-03  1.252249696727E-03
  1.259763194908E-03  1.267321774077E-03  1.274925704721E-03  1.282575258950E-03
  1.290270710503E-03  1.298012334766E-03  1.305800408775E-03  1.313635211228E-03
  1.321517022495E-03  1.329446124630E-03  1.337422801378E-03  1.345447338186E-03
  1.353520022215E-03  1.361641142349E-03  1.369810989203E-03  1.378029855138E-03
  1.386298034269E-03  1.394615822474E-03  1.402983517409E-03  1.411401418514E-03
  1.419869827025E-03  1.428389045987E-03  1.436959380263E-03  1.445581136544E-03
  1.454254623364E-03  1.462980151104E-03  1.471758032010E-03  1.480588580202E-03
  1.489472111684E-03  1.498408944354E-03  1.507399398020E-03  1.516443794408E-03
  1.525542457174E-03  1.534695711917E-03  1.543903886189E-03  1.553167309506E-03
  1.562486313363E-03  1.571861231243E-03  1.581292398631E-03  1.590780153023E-03
  1.600324833941E-03  1.609926782944E-03  1.619586343642E-03  1.629303861704E-03
  1.639079684874E-03  1.648914162983E-03  1.658807647961E-03  1.668760493849E-03
  1.678773056812E-03  1.688845695153E-03  1.698978769324E-03  1.709172641940E-03
  1.719427677792E-03  1.729744243858E-03  1.740122709321E-03  1.750563445577E-03
  1.761066826251E-03  1.771633227208E-03  1.782263026572E-03  1.792956604731E-03
  1.803714344359E-03  1.814536630426E-03  1.825423850208E-03  1.836376393309E-03
  1.847394651669E-03  1.858479019579E-03  1.869629893697E-03  1.880847673059E-03
  1.892132759097E-03  1.903485555652E-03  1.914906468986E-03  1.926395907800E-03
  1.937954283246E-03  1.949582008946E-03  1.961279501000E-03  1.973047178006E-03
  1.984885461074E-03  1.996794773840E-03  2.008775542483E-03  2.020828195738E-03
  2.032953164912E-03  2.045150883902E-03  2.057421789205E-03  2.069766319941E-03
  2.082184917860E-03  2.094678027367E-03  2.107246095532E-03  2.119889572105E-03
  2.132608909537E-03  2.145404562995E-03  2.158276990373E-03  2.171226652315E-03
  2.184254012229E-03  2.197359536302E-03  2.210543693520E-03  2.223806955681E-03
  2.237149797415E-03  2.250572696200E-03  2.264076132377E-03  2.277660589171E-03
  2.291326552706E-03  2.305074512022E-03  2.318904959094E-03  2.332818388849E-03
  2.346815299182E-03  2.360896190977E-03  2.375061568123E-03  2.389311937532E-03
  2.403647809157E-03  2.418069696012E-03  2.432578114188E-03  2.447173582873E-03
  2.461856624370E-03  2.476627764117E-03  2.491487530701E-03  2.506436455885E-03
  2.521475074621E-03  2.536603925068E-03  2.551823548619E-03  2.567134489911E-03
  2.582537296850E-03  2.598032520631E-03  2.613620715755E-03  2.629302440049E-03
  2.645078254690E-03  2.660948724218E-03  2.676914416563E-03  2.692975903063E-03
  2.709133758481E-03  2.725388561032E-03  2.741740892398E-03  2.758191337752E-03
  2.774740485779E-03  2.791388928694E-03  2.808137262266E-03  2.824986085839E-03
  2.841936002354E-03  2.858987618369E-03  2.876141544079E-03  2.893398393343E-03
  2.910758783703E-03  2.928223336406E-03  2.945792676424E-03  2.963467432482E-03
  2.981248237077E-03  2.999135726500E-03  3.017130540859E-03  3.035233324104E-03
  3.053444724049E-03  3.071765392393E-03  3.090195984747E-03  3.108737160656E-03
  3.127389583620E-03  3.146153921121E-03  3.165030844648E-03  3.184021029716E-03
  3.203125155894E-03  3.222343906830E-03  3.241677970271E-03  3.261128038092E-03
  3.280694806321E-03  3.300378975159E-03  3.320181249010E-03  3.340102336504E-03
  3.360142950523E-03  3.380303808226E-03  3.400585631075E-03  3.420989144862E-03
  3.441515079731E-03  3.462164170209E-03  3.482937155231E-03  3.503834778162E-03
  3.524857786831E-03  3.546006933552E-03  3.567282975153E-03  3.588686673004E-03
  3.610218793042E-03  3.631880105800E-03  3.653671386435E-03  3.675593414754E-03
  3.697646975242E-03  3.719832857094E-03  3.742151854236E-03  3.764604765362E-03
  3.787192393954E-03  3.809915548318E-03  3.832775041608E-03  3.855771691857E-03
  3.878906322008E-03  3.902179759940E-03  3.925592838500E-03  3.949146395531E-03
  3.972841273904E-03  3.996678321548E-03  4.020658391477E-03  4.044782341826E-03
  4.069051035877E-03  4.093465342092E-03  4.118026134145E-03  4.142734290949E-03
  4.167590696695E-03  4.192596240875E-03  4.217751818321E-03  4.243058329231E-03
  4.268516679206E-03  4.294127779281E-03  4.319892545957E-03  4.345811901233E-03
  4.371886772640E-03  4.398118093276E-03  4.424506801835E-03  4.451053842646E-03
  4.477760165702E-03  4.504626726697E-03  4.531654487057E-03  4.558844413979E-03
  4.586197480463E-03  4.613714665346E-03  4.641396953338E-03  4.669245335058E-03
  4.697260807068E-03  4.725444371911E-03  4.753797038142E-03  4.782319820371E-03
  4.811013739293E-03  4.839879821729E-03  4.868919100659E-03  4.898132615263E-03
  4.927521410955E-03  4.957086539421E-03  4.986829058657E-03  5.016750033009E-03
  5.046850533207E-03  5.077131636406E-03  5.107594426225E-03  5.138239992782E-03
  5.169069432739E-03  5.200083849335E-03  5.231284352431E-03  5.262672058546E-03
  5.294248090897E-03  5.326013579442E-03  5.357969660919E-03  5.390117478885E-03
  5.422458183758E-03  5.454992932860E-03  5.487722890458E-03  5.520649227800E-03
  5.553773123167E-03  5.587095761906E-03  5.620618336478E-03  5.654342046496E-03
  5.688268098775E-03  5.722397707368E-03  5.756732093612E-03  5.791272486174E-03
  5.826020121091E-03  5.860976241818E-03  5.896142099268E-03  5.931518951864E-03
  5.967108065575E-03  6.002910713969E-03  6.038928178253E-03  6.075161747322E-03
  6.111612717806E-03  6.148282394113E-03  6.185172088478E-03  6.222283121008E-03
  6.259616819734E-03  6.297174520653E-03  6.334957567777E-03  6.372967313183E-03
  6.411205117063E-03  6.449672347765E-03  6.488370381851E-03  6.527300604143E-03
  6.566464407767E-03  6.605863194214E-03  6.645498373379E-03  6.685371363620E-03
  6.725483591801E-03  6.765836493352E-03  6.806431512312E-03  6.847270101386E-03
  6.888353721994E-03  6.929683844326E-03  6.971261947392E-03  7.013089519077E-03
  7.055168056191E-03  7.097499064528E-03  7.140084058915E-03  7.182924563269E-03
  7.226022110649E-03  7.269378243312E-03  7.312994512772E-03  7.356872479849E-03
  7.401013714728E-03  7.445419797016E-03  7.490092315799E-03  7.535032869693E-03
  7.580243066912E-03  7.625724525313E-03  7.671478872465E-03  7.717507745700E-03
  7.763812792174E-03  7.810395668927E-03  7.857258042940E-03  7.904401591198E-03
  7.951828000745E-03  7.999538968750E-03  8.047536202562E-03  8.095821419778E-03
  8.144396348296E-03  8.193262726386E-03  8.242422302744E-03  8.291876836561E-03
  8.341628097580E-03  8.391677866166E-03  8.442027933363E-03  8.492680100963E-03
  8.543636181569E-03  8.594897998658E-03  8.646467386650E-03  8.698346190970E-03
  8.750536268116E-03  8.803039485724E-03  8.855857722639E-03  8.908992868975E-03
  8.962446826188E-03  9.016221507146E-03  9.070318836188E-03  9.124740749206E-03
  9.179489193701E-03  9.234566128863E-03  9.289973525636E-03  9.345713366790E-03
  9.401787646991E-03  9.458198372873E-03  9.514947563110E-03  9.572037248489E-03
  9.629469471980E-03  9.687246288811E-03  9.745369766544E-03  9.803841985144E-03
  9.862665037054E-03  9.921841027277E-03  9.981372073440E-03  1.004126030588E-02
  1.010150786772E-02  1.016211691492E-02  1.022308961641E-02  1.028442815411E-02
  1.034613472304E-02  1.040821153137E-02  1.047066080056E-02  1.053348476537E-02
  1.059668567396E-02  1.066026578800E-02  1.072422738273E-02  1.078857274703E-02
  1.085330418351E-02  1.091842400861E-02  1.098393455266E-02  1.104983815998E-02
  1.111613718894E-02  1.118283401207E-02  1.124993101614E-02  1.131743060224E-02
  1.138533518585E-02  1.145364719697E-02  1.152236908015E-02  1.159150329463E-02
  1.166105231440E-02  1.173101862828E-02  1.180140474005E-02  1.187221316849E-02
  1.194344644751E-02  1.201510712619E-02  1.208719776895E-02  1.215972095556E-02
  1.223267928129E-02  1.230607535698E-02  1.237991180912E-02  1.245419127998E-02
  1.252891642766E-02  1.260408992622E-02  1.267971446578E-02  1.275579275258E-02
  1.283232750909E-02  1.290932147415E-02  1.298677740299E-02  1.306469806741E-02
  1.314308625581E-02  1.322194477335E-02  1.330127644199E-02  1.338108410064E-02
  1.346137060524E-02  1.354213882888E-02  1.362339166185E-02  1.370513201182E-02
  1.378736280389E-02  1.387008698072E-02  1.395330750260E-02  1.403702734761E-02
  1.412124951170E-02  1.420597700877E-02  1.429121287082E-02  1.437696014805E-02
  1.446322190894E-02  1.455000124039E-02  1.463730124783E-02  1.472512505532E-02
  1.481347580565E-02  1.490235666049E-02  1.499177080045E-02  1.508172142525E-02
  1.517221175380E-02  1.526324502433E-02  1.535482449447E-02  1.544695344144E-02
  1.553963516209E-02  1.563287297306E-02  1.572667021090E-02  1.582103023216E-02
  1.591595641356E-02  1.601145215204E-02  1.610752086495E-02  1.620416599014E-02
  1.630139098608E-02  1.639919933200E-02  1.649759452799E-02  1.659658009516E-02
  1.669615957573E-02  1.679633653318E-02  1.689711455238E-02  1.699849723970E-02
  1.710048822313E-02  1.720309115247E-02  1.730630969939E-02  1.741014755758E-02
  1.751460844293E-02  1.761969609359E-02  1.772541427015E-02  1.783176675577E-02
  1.793875735630E-02  1.804638990044E-02  1.815466823984E-02  1.826359624928E-02
  1.837317782678E-02  1.848341689374E-02  1.859431739510E-02  1.870588329947E-02
  1.881811859927E-02  1.893102731086E-02  1.904461347473E-02  1.915888115558E-02
  1.927383444251E-02  1.938947744917E-02  1.950581431386E-02  1.962284919975E-02
  1.974058629494E-02  1.985902981271E-02  1.997818399159E-02  2.009805309554E-02
  2.021864141411E-02  2.033995326260E-02  2.046199298217E-02  2.058476494007E-02
  2.070827352971E-02  2.083252317088E-02  2.095751830991E-02  2.108326341977E-02
  2.120976300029E-02  2.133702157829E-02  2.146504370776E-02  2.159383397001E-02
  2.172339697383E-02  2.185373735567E-02  2.198485977980E-02  2.211676893848E-02